# nam4wpan #
c -t * -i 32 -n tomato
c -t * -i 33 -n green
c -t * -i 34 -n blue
c -t * -i 35 -n blue
c -t * -i 36 -n green4
c -t * -i 37 -n green4
c -t * -i 38 -n cyan4
c -t * -i 39 -n cyan4
n -t * -s 0  -x 26.608377307314001 -y 49.446991827566002 -Z 0 -z 2  -v circle -c black
n -t * -s 1  -x 49.337311778721002 -y 48.582820874924003 -Z 0 -z 2  -v circle -c black
n -t * -s 2  -x 27.437938215930998 -y 30.091658830425001 -Z 0 -z 2  -v circle -c black
n -t * -s 3  -x 10.568766842666999 -y 47.453389414657003 -Z 0 -z 2  -v circle -c black
n -t * -s 4  -x 32.496269526711004 -y 2.2574501390449999 -Z 0 -z 2  -v circle -c black
n -t * -s 5  -x 26.476535726599 -y 38.646396828919997 -Z 0 -z 2  -v circle -c black
n -t * -s 6  -x 49.430596917301003 -y 31.320042376073001 -Z 0 -z 2  -v circle -c black
n -t * -s 7  -x 20.045665842363999 -y 32.537008965783002 -Z 0 -z 2  -v circle -c black
n -t * -s 8  -x 13.641089465783001 -y 28.871428688348999 -Z 0 -z 2  -v circle -c black
n -t * -s 9  -x 2.1258568489409999 -y 9.0496445382770005 -Z 0 -z 2  -v circle -c black
n -t * -s 10  -x 0.59687160517799998 -y 0.81617422862099998 -Z 0 -z 2  -v circle -c black
n -t * -s 11  -x 8.8281975910679993 -y 34.402175912552998 -Z 0 -z 2  -v circle -c black
n -t * -s 12  -x 18.759762507870001 -y 25.069997591097 -Z 0 -z 2  -v circle -c black
n -t * -s 13  -x 13.277017351151001 -y 5.5221490093060002 -Z 0 -z 2  -v circle -c black
n -t * -s 14  -x 28.935083056450001 -y 37.156742480258004 -Z 0 -z 2  -v circle -c black
n -t * -s 15  -x 23.507724673396002 -y 3.5667728464790001 -Z 0 -z 2  -v circle -c black
n -t * -s 16  -x 20.236128396148001 -y 45.484419961171 -Z 0 -z 2  -v circle -c black
n -t * -s 17  -x 45.709636471608 -y 48.353113573381997 -Z 0 -z 2  -v circle -c black
n -t * -s 18  -x 45.610349971557 -y 49.787732692399999 -Z 0 -z 2  -v circle -c black
n -t * -s 19  -x 24.345058881159002 -y 19.614188426582 -Z 0 -z 2  -v circle -c black
n -t * -s 20  -x 35.972132273531003 -y 10.620805728045999 -Z 0 -z 2  -v circle -c black
n -t * -s 21  -x 49.626765649851002 -y 14.028905860150999 -Z 0 -z 2  -v circle -c black
n -t * -s 22  -x 14.914806804685 -y 24.094071765795 -Z 0 -z 2  -v circle -c black
n -t * -s 23  -x 28.443020411336001 -y 24.367299319337999 -Z 0 -z 2  -v circle -c black
n -t * -s 24  -x 48.102836431793001 -y 22.394995544608001 -Z 0 -z 2  -v circle -c black
V -t * -v 1.0a5 -a 0
W -t * -x 50 -y 50
A -t * -n 1 -p 0 -o 0xffffffff -c 31 -a 1
A -t * -h 1 -m 2147483647 -s 0
v -t 0.000000000 -e set_rate_ext 0.20ms 1
v -t 0 -e sim_annotation 0 1 (at 0.0) ftp traffic from node 19 to node 6
n -t 0.000000000 -s 19 -S COLOR -c blue -o black
n -t 0.000000000 -s 6 -S COLOR -c blue -o black
+ -t 0.000985000 -s 19 -d -1 -p AODV -e 55 -c 2 -a 32 -i 0 -k MAC 
- -t 0.000985000 -s 19 -d -1 -p AODV -e 55 -c 2 -a 32 -i 0 -k MAC
h -t 0.000985000 -s 19 -d -1 -p AODV -e 55 -c 2 -a 32 -i 0 -k MAC -R 15.00 -D 0.00
r -t 0.003577021 -s 23 -d -1 -p AODV -e 48 -c 2 -a 32 -i 0 -k MAC
r -t 0.003577026 -s 12 -d -1 -p AODV -e 48 -c 2 -a 32 -i 0 -k MAC
r -t 0.003577035 -s 22 -d -1 -p AODV -e 48 -c 2 -a 32 -i 0 -k MAC
r -t 0.003577036 -s 2 -d -1 -p AODV -e 48 -c 2 -a 32 -i 0 -k MAC
r -t 0.003577045 -s 7 -d -1 -p AODV -e 48 -c 2 -a 32 -i 0 -k MAC
r -t 0.003577047 -s 8 -d -1 -p AODV -e 48 -c 2 -a 32 -i 0 -k MAC
r -t 0.003577049 -s 20 -d -1 -p AODV -e 48 -c 2 -a 32 -i 0 -k MAC
+ -t 0.005502610 -s 22 -d -1 -p AODV -e 55 -c 2 -a 32 -i 0 -k MAC 
- -t 0.005502610 -s 22 -d -1 -p AODV -e 55 -c 2 -a 32 -i 0 -k MAC
h -t 0.005502610 -s 22 -d -1 -p AODV -e 55 -c 2 -a 32 -i 0 -k MAC -R 15.00 -D 0.00
+ -t 0.007857188 -s 7 -d -1 -p AODV -e 55 -c 2 -a 32 -i 0 -k MAC 
- -t 0.007857188 -s 7 -d -1 -p AODV -e 55 -c 2 -a 32 -i 0 -k MAC
h -t 0.007857188 -s 7 -d -1 -p AODV -e 55 -c 2 -a 32 -i 0 -k MAC -R 15.00 -D 0.00
r -t 0.008094623 -s 12 -d -1 -p AODV -e 48 -c 2 -a 32 -i 0 -k MAC
r -t 0.008094626 -s 8 -d -1 -p AODV -e 48 -c 2 -a 32 -i 0 -k MAC
r -t 0.008094642 -s 7 -d -1 -p AODV -e 48 -c 2 -a 32 -i 0 -k MAC
r -t 0.008094644 -s 19 -d -1 -p AODV -e 48 -c 2 -a 32 -i 0 -k MAC
r -t 0.008094649 -s 11 -d -1 -p AODV -e 48 -c 2 -a 32 -i 0 -k MAC
r -t 0.008094655 -s 23 -d -1 -p AODV -e 48 -c 2 -a 32 -i 0 -k MAC
r -t 0.008094656 -s 2 -d -1 -p AODV -e 48 -c 2 -a 32 -i 0 -k MAC
+ -t 0.010228206 -s 2 -d -1 -p AODV -e 55 -c 2 -a 32 -i 0 -k MAC 
- -t 0.010228206 -s 2 -d -1 -p AODV -e 55 -c 2 -a 32 -i 0 -k MAC
h -t 0.010228206 -s 2 -d -1 -p AODV -e 55 -c 2 -a 32 -i 0 -k MAC -R 15.00 -D 0.00
r -t 0.010449213 -s 8 -d -1 -p AODV -e 48 -c 2 -a 32 -i 0 -k MAC
r -t 0.010449213 -s 12 -d -1 -p AODV -e 48 -c 2 -a 32 -i 0 -k MAC
r -t 0.010449214 -s 2 -d -1 -p AODV -e 48 -c 2 -a 32 -i 0 -k MAC
r -t 0.010449217 -s 5 -d -1 -p AODV -e 48 -c 2 -a 32 -i 0 -k MAC
r -t 0.010449221 -s 22 -d -1 -p AODV -e 48 -c 2 -a 32 -i 0 -k MAC
r -t 0.010449221 -s 14 -d -1 -p AODV -e 48 -c 2 -a 32 -i 0 -k MAC
r -t 0.010449226 -s 11 -d -1 -p AODV -e 48 -c 2 -a 32 -i 0 -k MAC
r -t 0.010449227 -s 23 -d -1 -p AODV -e 48 -c 2 -a 32 -i 0 -k MAC
r -t 0.010449231 -s 16 -d -1 -p AODV -e 48 -c 2 -a 32 -i 0 -k MAC
r -t 0.010449233 -s 19 -d -1 -p AODV -e 48 -c 2 -a 32 -i 0 -k MAC
+ -t 0.010978219 -s 11 -d -1 -p AODV -e 55 -c 2 -a 32 -i 0 -k MAC 
- -t 0.010978219 -s 11 -d -1 -p AODV -e 55 -c 2 -a 32 -i 0 -k MAC
h -t 0.010978219 -s 11 -d -1 -p AODV -e 55 -c 2 -a 32 -i 0 -k MAC -R 15.00 -D 0.00
n -t 0.010978244 -s 8 -S COLOR -c gold -o black
n -t 0.010978257 -s 7 -S COLOR -c gold -o black
n -t 0.010978259 -s 22 -S COLOR -c gold -o black
n -t 0.010978265 -s 12 -S COLOR -c gold -o black
d -t 0.012180232 -s 7 -d -1 -p AODV -e 55 -c 2 -a 32 -i 0 -k MAC
d -t 0.012180240 -s 12 -d -1 -p AODV -e 55 -c 2 -a 32 -i 0 -k MAC
r -t 0.012820226 -s 23 -d -1 -p AODV -e 48 -c 2 -a 32 -i 0 -k MAC
r -t 0.012820230 -s 14 -d -1 -p AODV -e 48 -c 2 -a 32 -i 0 -k MAC
r -t 0.012820235 -s 5 -d -1 -p AODV -e 48 -c 2 -a 32 -i 0 -k MAC
r -t 0.012820243 -s 19 -d -1 -p AODV -e 48 -c 2 -a 32 -i 0 -k MAC
d -t 0.012930243 -s 8 -d -1 -p AODV -e 55 -c 2 -a 32 -i 0 -k MAC
d -t 0.012930258 -s 22 -d -1 -p AODV -e 55 -c 2 -a 32 -i 0 -k MAC
+ -t 0.013396918 -s 8 -d -1 -p AODV -e 55 -c 2 -a 32 -i 0 -k MAC 
- -t 0.013396918 -s 8 -d -1 -p AODV -e 55 -c 2 -a 32 -i 0 -k MAC
h -t 0.013396918 -s 8 -d -1 -p AODV -e 55 -c 2 -a 32 -i 0 -k MAC -R 15.00 -D 0.00
r -t 0.013570262 -s 3 -d -1 -p AODV -e 48 -c 2 -a 32 -i 0 -k MAC
+ -t 0.013621233 -s 16 -d -1 -p AODV -e 55 -c 2 -a 32 -i 0 -k MAC 
- -t 0.013621233 -s 16 -d -1 -p AODV -e 55 -c 2 -a 32 -i 0 -k MAC
h -t 0.013621233 -s 16 -d -1 -p AODV -e 55 -c 2 -a 32 -i 0 -k MAC -R 15.00 -D 0.00
n -t 0.013621277 -s 7 -S COLOR -c gold -o black
d -t 0.015348943 -s 7 -d -1 -p AODV -e 55 -c 2 -a 32 -i 0 -k MAC
+ -t 0.015655211 -s 20 -d -1 -p AODV -e 55 -c 2 -a 32 -i 0 -k MAC 
- -t 0.015655211 -s 20 -d -1 -p AODV -e 55 -c 2 -a 32 -i 0 -k MAC
h -t 0.015655211 -s 20 -d -1 -p AODV -e 55 -c 2 -a 32 -i 0 -k MAC -R 15.00 -D 0.00
r -t 0.015988935 -s 22 -d -1 -p AODV -e 48 -c 2 -a 32 -i 0 -k MAC
r -t 0.015988939 -s 12 -d -1 -p AODV -e 48 -c 2 -a 32 -i 0 -k MAC
r -t 0.015988943 -s 11 -d -1 -p AODV -e 48 -c 2 -a 32 -i 0 -k MAC
r -t 0.015988964 -s 2 -d -1 -p AODV -e 48 -c 2 -a 32 -i 0 -k MAC
r -t 0.015988965 -s 19 -d -1 -p AODV -e 48 -c 2 -a 32 -i 0 -k MAC
r -t 0.016213258 -s 0 -d -1 -p AODV -e 48 -c 2 -a 32 -i 0 -k MAC
r -t 0.016213263 -s 5 -d -1 -p AODV -e 48 -c 2 -a 32 -i 0 -k MAC
r -t 0.016213265 -s 3 -d -1 -p AODV -e 48 -c 2 -a 32 -i 0 -k MAC
r -t 0.016213273 -s 14 -d -1 -p AODV -e 48 -c 2 -a 32 -i 0 -k MAC
r -t 0.018247241 -s 4 -d -1 -p AODV -e 48 -c 2 -a 32 -i 0 -k MAC
r -t 0.018247258 -s 21 -d -1 -p AODV -e 48 -c 2 -a 32 -i 0 -k MAC
r -t 0.018247259 -s 15 -d -1 -p AODV -e 48 -c 2 -a 32 -i 0 -k MAC
r -t 0.018247260 -s 19 -d -1 -p AODV -e 48 -c 2 -a 32 -i 0 -k MAC
+ -t 0.019450129 -s 5 -d -1 -p AODV -e 55 -c 2 -a 32 -i 0 -k MAC 
- -t 0.019450129 -s 5 -d -1 -p AODV -e 55 -c 2 -a 32 -i 0 -k MAC
h -t 0.019450129 -s 5 -d -1 -p AODV -e 55 -c 2 -a 32 -i 0 -k MAC -R 15.00 -D 0.00
n -t 0.020978244 -s 8 -S COLOR -c grey -o gold
n -t 0.020978257 -s 7 -S COLOR -c grey -o gold
n -t 0.020978259 -s 22 -S COLOR -c grey -o gold
n -t 0.020978265 -s 12 -S COLOR -c grey -o gold
+ -t 0.021077143 -s 15 -d -1 -p AODV -e 55 -c 2 -a 32 -i 0 -k MAC 
- -t 0.021077143 -s 15 -d -1 -p AODV -e 55 -c 2 -a 32 -i 0 -k MAC
h -t 0.021077143 -s 15 -d -1 -p AODV -e 55 -c 2 -a 32 -i 0 -k MAC -R 15.00 -D 0.00
+ -t 0.021259899 -s 12 -d -1 -p AODV -e 55 -c 2 -a 32 -i 0 -k MAC 
- -t 0.021259899 -s 12 -d -1 -p AODV -e 55 -c 2 -a 32 -i 0 -k MAC
h -t 0.021259899 -s 12 -d -1 -p AODV -e 55 -c 2 -a 32 -i 0 -k MAC -R 15.00 -D 0.00
n -t 0.021259925 -s 7 -S COLOR -c gold -o black
n -t 0.021259932 -s 23 -S COLOR -c gold -o black
n -t 0.021259933 -s 2 -S COLOR -c gold -o black
d -t 0.021402157 -s 2 -d -1 -p AODV -e 55 -c 2 -a 32 -i 0 -k MAC
r -t 0.022042138 -s 14 -d -1 -p AODV -e 48 -c 2 -a 32 -i 0 -k MAC
r -t 0.022042160 -s 16 -d -1 -p AODV -e 48 -c 2 -a 32 -i 0 -k MAC
r -t 0.022042165 -s 0 -d -1 -p AODV -e 48 -c 2 -a 32 -i 0 -k MAC
+ -t 0.022807343 -s 0 -d -1 -p AODV -e 55 -c 2 -a 32 -i 0 -k MAC 
- -t 0.022807343 -s 0 -d -1 -p AODV -e 55 -c 2 -a 32 -i 0 -k MAC
h -t 0.022807343 -s 0 -d -1 -p AODV -e 55 -c 2 -a 32 -i 0 -k MAC -R 15.00 -D 0.00
d -t 0.023211924 -s 7 -d -1 -p AODV -e 55 -c 2 -a 32 -i 0 -k MAC
d -t 0.023211931 -s 23 -d -1 -p AODV -e 55 -c 2 -a 32 -i 0 -k MAC
n -t 0.023621277 -s 7 -S COLOR -c grey -o gold
r -t 0.023669173 -s 4 -d -1 -p AODV -e 48 -c 2 -a 32 -i 0 -k MAC
r -t 0.023669178 -s 13 -d -1 -p AODV -e 48 -c 2 -a 32 -i 0 -k MAC
r -t 0.023669191 -s 20 -d -1 -p AODV -e 48 -c 2 -a 32 -i 0 -k MAC
r -t 0.023851912 -s 22 -d -1 -p AODV -e 48 -c 2 -a 32 -i 0 -k MAC
r -t 0.023851920 -s 8 -d -1 -p AODV -e 48 -c 2 -a 32 -i 0 -k MAC
r -t 0.023851925 -s 19 -d -1 -p AODV -e 48 -c 2 -a 32 -i 0 -k MAC
r -t 0.023851944 -s 11 -d -1 -p AODV -e 48 -c 2 -a 32 -i 0 -k MAC
+ -t 0.024606726 -s 3 -d -1 -p AODV -e 55 -c 2 -a 32 -i 0 -k MAC 
- -t 0.024606726 -s 3 -d -1 -p AODV -e 55 -c 2 -a 32 -i 0 -k MAC
h -t 0.024606726 -s 3 -d -1 -p AODV -e 55 -c 2 -a 32 -i 0 -k MAC -R 15.00 -D 0.00
n -t 0.024606759 -s 16 -S COLOR -c gold -o black
d -t 0.024759368 -s 16 -d -1 -p AODV -e 55 -c 2 -a 32 -i 0 -k MAC
r -t 0.025399379 -s 5 -d -1 -p AODV -e 48 -c 2 -a 32 -i 0 -k MAC
r -t 0.025399385 -s 14 -d -1 -p AODV -e 48 -c 2 -a 32 -i 0 -k MAC
+ -t 0.025572517 -s 21 -d -1 -p AODV -e 55 -c 2 -a 32 -i 0 -k MAC 
- -t 0.025572517 -s 21 -d -1 -p AODV -e 55 -c 2 -a 32 -i 0 -k MAC
h -t 0.025572517 -s 21 -d -1 -p AODV -e 55 -c 2 -a 32 -i 0 -k MAC -R 15.00 -D 0.00
+ -t 0.025640923 -s 13 -d -1 -p AODV -e 55 -c 2 -a 32 -i 0 -k MAC 
- -t 0.025640923 -s 13 -d -1 -p AODV -e 55 -c 2 -a 32 -i 0 -k MAC
h -t 0.025640923 -s 13 -d -1 -p AODV -e 55 -c 2 -a 32 -i 0 -k MAC -R 15.00 -D 0.00
r -t 0.027198769 -s 11 -d -1 -p AODV -e 48 -c 2 -a 32 -i 0 -k MAC
+ -t 0.027414992 -s 4 -d -1 -p AODV -e 55 -c 2 -a 32 -i 0 -k MAC 
- -t 0.027414992 -s 4 -d -1 -p AODV -e 55 -c 2 -a 32 -i 0 -k MAC
h -t 0.027414992 -s 4 -d -1 -p AODV -e 55 -c 2 -a 32 -i 0 -k MAC -R 15.00 -D 0.00
n -t 0.027415023 -s 20 -S COLOR -c gold -o black
n -t 0.027415023 -s 15 -S COLOR -c gold -o black
r -t 0.028164545 -s 24 -d -1 -p AODV -e 48 -c 2 -a 32 -i 0 -k MAC
r -t 0.028232962 -s 9 -d -1 -p AODV -e 48 -c 2 -a 32 -i 0 -k MAC
r -t 0.028232968 -s 10 -d -1 -p AODV -e 48 -c 2 -a 32 -i 0 -k MAC
d -t 0.029367022 -s 20 -d -1 -p AODV -e 55 -c 2 -a 32 -i 0 -k MAC
d -t 0.029367022 -s 15 -d -1 -p AODV -e 55 -c 2 -a 32 -i 0 -k MAC
n -t 0.030001001 -s 19 -S COLOR -c blue -o blue
n -t 0.030001001 -s 6 -S COLOR -c blue -o blue
+ -t 0.030782469 -s 24 -d -1 -p AODV -e 55 -c 2 -a 32 -i 0 -k MAC 
- -t 0.030782469 -s 24 -d -1 -p AODV -e 55 -c 2 -a 32 -i 0 -k MAC
h -t 0.030782469 -s 24 -d -1 -p AODV -e 55 -c 2 -a 32 -i 0 -k MAC -R 15.00 -D 0.00
n -t 0.030978244 -s 8 -S COLOR -c black -o grey
n -t 0.030978257 -s 7 -S COLOR -c black -o grey
n -t 0.030978259 -s 22 -S COLOR -c black -o grey
n -t 0.030978265 -s 12 -S COLOR -c black -o grey
n -t 0.031259925 -s 7 -S COLOR -c grey -o gold
n -t 0.031259932 -s 23 -S COLOR -c grey -o gold
n -t 0.031259933 -s 2 -S COLOR -c grey -o gold
+ -t 0.032292858 -s 10 -d -1 -p AODV -e 55 -c 2 -a 32 -i 0 -k MAC 
- -t 0.032292858 -s 10 -d -1 -p AODV -e 55 -c 2 -a 32 -i 0 -k MAC
h -t 0.032292858 -s 10 -d -1 -p AODV -e 55 -c 2 -a 32 -i 0 -k MAC -R 15.00 -D 0.00
+ -t 0.032375422 -s 14 -d -1 -p AODV -e 55 -c 2 -a 32 -i 0 -k MAC 
- -t 0.032375422 -s 14 -d -1 -p AODV -e 55 -c 2 -a 32 -i 0 -k MAC
h -t 0.032375422 -s 14 -d -1 -p AODV -e 55 -c 2 -a 32 -i 0 -k MAC -R 15.00 -D 0.00
r -t 0.033374497 -s 21 -d -1 -p AODV -e 48 -c 2 -a 32 -i 0 -k MAC
r -t 0.033374499 -s 6 -d -1 -p AODV -e 48 -c 2 -a 32 -i 0 -k MAC
n -t 0.033621277 -s 7 -S COLOR -c black -o grey
n -t 0.034606759 -s 16 -S COLOR -c grey -o gold
r -t 0.034884886 -s 9 -d -1 -p AODV -e 48 -c 2 -a 32 -i 0 -k MAC
r -t 0.034884903 -s 13 -d -1 -p AODV -e 48 -c 2 -a 32 -i 0 -k MAC
r -t 0.034967431 -s 5 -d -1 -p AODV -e 48 -c 2 -a 32 -i 0 -k MAC
r -t 0.034967446 -s 2 -d -1 -p AODV -e 48 -c 2 -a 32 -i 0 -k MAC
r -t 0.034967455 -s 7 -d -1 -p AODV -e 48 -c 2 -a 32 -i 0 -k MAC
r -t 0.034967462 -s 16 -d -1 -p AODV -e 48 -c 2 -a 32 -i 0 -k MAC
r -t 0.034967464 -s 0 -d -1 -p AODV -e 48 -c 2 -a 32 -i 0 -k MAC
r -t 0.034967464 -s 23 -d -1 -p AODV -e 48 -c 2 -a 32 -i 0 -k MAC
+ -t 0.035583435 -s 9 -d -1 -p AODV -e 55 -c 2 -a 32 -i 0 -k MAC 
- -t 0.035583435 -s 9 -d -1 -p AODV -e 55 -c 2 -a 32 -i 0 -k MAC
h -t 0.035583435 -s 9 -d -1 -p AODV -e 55 -c 2 -a 32 -i 0 -k MAC -R 15.00 -D 0.00
+ -t 0.035964499 -s 6 -d -1 -p ARP -e 35 -c 2 -a 33 -i 0 -k MAC 
- -t 0.035964499 -s 6 -d -1 -p ARP -e 35 -c 2 -a 33 -i 0 -k MAC
h -t 0.035964499 -s 6 -d -1 -p ARP -e 35 -c 2 -a 33 -i 0 -k MAC -R 15.00 -D 0.00
n -t 0.037415023 -s 20 -S COLOR -c grey -o gold
n -t 0.037415023 -s 15 -S COLOR -c grey -o gold
r -t 0.037916529 -s 24 -d -1 -p ARP -e 28 -c 2 -a 33 -i 0 -k MAC
r -t 0.038175463 -s 10 -d -1 -p AODV -e 48 -c 2 -a 32 -i 0 -k MAC
r -t 0.038175474 -s 13 -d -1 -p AODV -e 48 -c 2 -a 32 -i 0 -k MAC
+ -t 0.039841529 -s 24 -d -1 -p ARP -e 35 -c 2 -a 33 -i 0 -k MAC 
- -t 0.039841529 -s 24 -d -1 -p ARP -e 35 -c 2 -a 33 -i 0 -k MAC
h -t 0.039841529 -s 24 -d -1 -p ARP -e 35 -c 2 -a 33 -i 0 -k MAC -R 15.00 -D 0.00
n -t 0.041259925 -s 7 -S COLOR -c black -o grey
n -t 0.041259932 -s 23 -S COLOR -c black -o grey
n -t 0.041259933 -s 2 -S COLOR -c black -o grey
+ -t 0.041345559 -s 6 -d 24 -p ACK -e 5 -c 2 -a 0 -i 0 -k MAC 
- -t 0.041345559 -s 6 -d 24 -p ACK -e 5 -c 2 -a 0 -i 0 -k MAC
h -t 0.041345559 -s 6 -d 24 -p ACK -e 5 -c 2 -a 0 -i 0 -k MAC
r -t 0.041697589 -s 24 -d 24 -p ACK -e 5 -c 2 -a 0 -i 0 -k MAC
r -t 0.042337559 -s 6 -d -1 -p ARP -e 28 -c 2 -a 33 -i 0 -k MAC
+ -t 0.044582559 -s 6 -d 24 -p AODV -e 51 -c 2 -a 32 -i 0 -k MAC 
- -t 0.044582559 -s 6 -d 24 -p AODV -e 51 -c 2 -a 32 -i 0 -k MAC
h -t 0.044582559 -s 6 -d 24 -p AODV -e 51 -c 2 -a 32 -i 0 -k MAC
n -t 0.044606759 -s 16 -S COLOR -c black -o grey
+ -t 0.046598589 -s 24 -d 6 -p ACK -e 5 -c 2 -a 0 -i 0 -k MAC 
- -t 0.046598589 -s 24 -d 6 -p ACK -e 5 -c 2 -a 0 -i 0 -k MAC
h -t 0.046598589 -s 24 -d 6 -p ACK -e 5 -c 2 -a 0 -i 0 -k MAC
r -t 0.046950619 -s 6 -d 6 -p ACK -e 5 -c 2 -a 0 -i 0 -k MAC
n -t 0.047415023 -s 20 -S COLOR -c black -o grey
n -t 0.047415023 -s 15 -S COLOR -c black -o grey
r -t 0.047590589 -s 24 -d 24 -p AODV -e 44 -c 2 -a 32 -i 0 -k MAC
+ -t 0.050180589 -s 24 -d -1 -p ARP -e 35 -c 2 -a 33 -i 0 -k MAC 
- -t 0.050180589 -s 24 -d -1 -p ARP -e 35 -c 2 -a 33 -i 0 -k MAC
h -t 0.050180589 -s 24 -d -1 -p ARP -e 35 -c 2 -a 33 -i 0 -k MAC -R 15.00 -D 0.00
r -t 0.052132617 -s 21 -d -1 -p ARP -e 28 -c 2 -a 33 -i 0 -k MAC
r -t 0.052132619 -s 6 -d -1 -p ARP -e 28 -c 2 -a 33 -i 0 -k MAC
+ -t 0.054697617 -s 21 -d -1 -p ARP -e 35 -c 2 -a 33 -i 0 -k MAC 
- -t 0.054697617 -s 21 -d -1 -p ARP -e 35 -c 2 -a 33 -i 0 -k MAC
h -t 0.054697617 -s 21 -d -1 -p ARP -e 35 -c 2 -a 33 -i 0 -k MAC -R 15.00 -D 0.00
+ -t 0.056201646 -s 24 -d 21 -p ACK -e 5 -c 2 -a 0 -i 0 -k MAC 
- -t 0.056201646 -s 24 -d 21 -p ACK -e 5 -c 2 -a 0 -i 0 -k MAC
h -t 0.056201646 -s 24 -d 21 -p ACK -e 5 -c 2 -a 0 -i 0 -k MAC
r -t 0.056553674 -s 21 -d 21 -p ACK -e 5 -c 2 -a 0 -i 0 -k MAC
r -t 0.057193646 -s 24 -d -1 -p ARP -e 28 -c 2 -a 33 -i 0 -k MAC
+ -t 0.059118646 -s 24 -d 21 -p AODV -e 51 -c 2 -a 32 -i 0 -k MAC 
- -t 0.059118646 -s 24 -d 21 -p AODV -e 51 -c 2 -a 32 -i 0 -k MAC
h -t 0.059118646 -s 24 -d 21 -p AODV -e 51 -c 2 -a 32 -i 0 -k MAC
+ -t 0.061134674 -s 21 -d 24 -p ACK -e 5 -c 2 -a 0 -i 0 -k MAC 
- -t 0.061134674 -s 21 -d 24 -p ACK -e 5 -c 2 -a 0 -i 0 -k MAC
h -t 0.061134674 -s 21 -d 24 -p ACK -e 5 -c 2 -a 0 -i 0 -k MAC
r -t 0.061486703 -s 24 -d 24 -p ACK -e 5 -c 2 -a 0 -i 0 -k MAC
r -t 0.062126674 -s 21 -d 21 -p AODV -e 44 -c 2 -a 32 -i 0 -k MAC
+ -t 0.062476674 -s 21 -d -1 -p ARP -e 35 -c 2 -a 33 -i 0 -k MAC 
- -t 0.062476674 -s 21 -d -1 -p ARP -e 35 -c 2 -a 33 -i 0 -k MAC
h -t 0.062476674 -s 21 -d -1 -p ARP -e 35 -c 2 -a 33 -i 0 -k MAC -R 15.00 -D 0.00
r -t 0.064428703 -s 24 -d -1 -p ARP -e 28 -c 2 -a 33 -i 0 -k MAC
r -t 0.064428721 -s 20 -d -1 -p ARP -e 28 -c 2 -a 33 -i 0 -k MAC
+ -t 0.066673721 -s 20 -d -1 -p ARP -e 35 -c 2 -a 33 -i 0 -k MAC 
- -t 0.066673721 -s 20 -d -1 -p ARP -e 35 -c 2 -a 33 -i 0 -k MAC
h -t 0.066673721 -s 20 -d -1 -p ARP -e 35 -c 2 -a 33 -i 0 -k MAC -R 15.00 -D 0.00
+ -t 0.068177768 -s 21 -d 20 -p ACK -e 5 -c 2 -a 0 -i 0 -k MAC 
- -t 0.068177768 -s 21 -d 20 -p ACK -e 5 -c 2 -a 0 -i 0 -k MAC
h -t 0.068177768 -s 21 -d 20 -p ACK -e 5 -c 2 -a 0 -i 0 -k MAC
r -t 0.068529815 -s 20 -d 20 -p ACK -e 5 -c 2 -a 0 -i 0 -k MAC
r -t 0.069169768 -s 21 -d -1 -p ARP -e 28 -c 2 -a 33 -i 0 -k MAC
+ -t 0.070454768 -s 21 -d 20 -p AODV -e 51 -c 2 -a 32 -i 0 -k MAC 
- -t 0.070454768 -s 21 -d 20 -p AODV -e 51 -c 2 -a 32 -i 0 -k MAC
h -t 0.070454768 -s 21 -d 20 -p AODV -e 51 -c 2 -a 32 -i 0 -k MAC
+ -t 0.072470815 -s 20 -d 21 -p ACK -e 5 -c 2 -a 0 -i 0 -k MAC 
- -t 0.072470815 -s 20 -d 21 -p ACK -e 5 -c 2 -a 0 -i 0 -k MAC
h -t 0.072470815 -s 20 -d 21 -p ACK -e 5 -c 2 -a 0 -i 0 -k MAC
r -t 0.072822862 -s 21 -d 21 -p ACK -e 5 -c 2 -a 0 -i 0 -k MAC
r -t 0.073462815 -s 20 -d 20 -p AODV -e 44 -c 2 -a 32 -i 0 -k MAC
+ -t 0.075092815 -s 20 -d -1 -p ARP -e 35 -c 2 -a 33 -i 0 -k MAC 
- -t 0.075092815 -s 20 -d -1 -p ARP -e 35 -c 2 -a 33 -i 0 -k MAC
h -t 0.075092815 -s 20 -d -1 -p ARP -e 35 -c 2 -a 33 -i 0 -k MAC -R 15.00 -D 0.00
r -t 0.077044845 -s 4 -d -1 -p ARP -e 28 -c 2 -a 33 -i 0 -k MAC
r -t 0.077044862 -s 21 -d -1 -p ARP -e 28 -c 2 -a 33 -i 0 -k MAC
r -t 0.077044863 -s 15 -d -1 -p ARP -e 28 -c 2 -a 33 -i 0 -k MAC
r -t 0.077044864 -s 19 -d -1 -p ARP -e 28 -c 2 -a 33 -i 0 -k MAC
+ -t 0.079609864 -s 19 -d -1 -p ARP -e 35 -c 2 -a 33 -i 0 -k MAC 
- -t 0.079609864 -s 19 -d -1 -p ARP -e 35 -c 2 -a 33 -i 0 -k MAC
h -t 0.079609864 -s 19 -d -1 -p ARP -e 35 -c 2 -a 33 -i 0 -k MAC -R 15.00 -D 0.00
+ -t 0.081113913 -s 20 -d 19 -p ACK -e 5 -c 2 -a 0 -i 0 -k MAC 
- -t 0.081113913 -s 20 -d 19 -p ACK -e 5 -c 2 -a 0 -i 0 -k MAC
h -t 0.081113913 -s 20 -d 19 -p ACK -e 5 -c 2 -a 0 -i 0 -k MAC
r -t 0.081465962 -s 19 -d 19 -p ACK -e 5 -c 2 -a 0 -i 0 -k MAC
r -t 0.082105913 -s 20 -d -1 -p ARP -e 28 -c 2 -a 33 -i 0 -k MAC
+ -t 0.082430913 -s 20 -d 19 -p AODV -e 51 -c 2 -a 32 -i 0 -k MAC 
- -t 0.082430913 -s 20 -d 19 -p AODV -e 51 -c 2 -a 32 -i 0 -k MAC
h -t 0.082430913 -s 20 -d 19 -p AODV -e 51 -c 2 -a 32 -i 0 -k MAC
+ -t 0.084446962 -s 19 -d 20 -p ACK -e 5 -c 2 -a 0 -i 0 -k MAC 
- -t 0.084446962 -s 19 -d 20 -p ACK -e 5 -c 2 -a 0 -i 0 -k MAC
h -t 0.084446962 -s 19 -d 20 -p ACK -e 5 -c 2 -a 0 -i 0 -k MAC
r -t 0.084799011 -s 20 -d 20 -p ACK -e 5 -c 2 -a 0 -i 0 -k MAC
r -t 0.085438962 -s 19 -d 19 -p AODV -e 44 -c 2 -a 32 -i 0 -k MAC
+ -t 0.088048962 -s 19 -d 20 -p tcp -e 47 -c 2 -a 34 -i 0 -k MAC 
- -t 0.088048962 -s 19 -d 20 -p tcp -e 47 -c 2 -a 34 -i 0 -k MAC
h -t 0.088048962 -s 19 -d 20 -p tcp -e 47 -c 2 -a 34 -i 0 -k MAC
+ -t 0.089937011 -s 20 -d 19 -p ACK -e 5 -c 2 -a 0 -i 0 -k MAC 
- -t 0.089937011 -s 20 -d 19 -p ACK -e 5 -c 2 -a 0 -i 0 -k MAC
h -t 0.089937011 -s 20 -d 19 -p ACK -e 5 -c 2 -a 0 -i 0 -k MAC
r -t 0.090289060 -s 19 -d 19 -p ACK -e 5 -c 2 -a 0 -i 0 -k MAC
r -t 0.090929011 -s 20 -d 20 -p tcp -e 40 -c 2 -a 34 -i 0 -k MAC
+ -t 0.092899011 -s 20 -d 21 -p tcp -e 47 -c 2 -a 34 -i 0 -k MAC 
- -t 0.092899011 -s 20 -d 21 -p tcp -e 47 -c 2 -a 34 -i 0 -k MAC
h -t 0.092899011 -s 20 -d 21 -p tcp -e 47 -c 2 -a 34 -i 0 -k MAC
+ -t 0.094787058 -s 21 -d 20 -p ACK -e 5 -c 2 -a 0 -i 0 -k MAC 
- -t 0.094787058 -s 21 -d 20 -p ACK -e 5 -c 2 -a 0 -i 0 -k MAC
h -t 0.094787058 -s 21 -d 20 -p ACK -e 5 -c 2 -a 0 -i 0 -k MAC
r -t 0.095139105 -s 20 -d 20 -p ACK -e 5 -c 2 -a 0 -i 0 -k MAC
r -t 0.095779058 -s 21 -d 21 -p tcp -e 40 -c 2 -a 34 -i 0 -k MAC
+ -t 0.097429058 -s 21 -d 24 -p tcp -e 47 -c 2 -a 34 -i 0 -k MAC 
- -t 0.097429058 -s 21 -d 24 -p tcp -e 47 -c 2 -a 34 -i 0 -k MAC
h -t 0.097429058 -s 21 -d 24 -p tcp -e 47 -c 2 -a 34 -i 0 -k MAC
+ -t 0.099317086 -s 24 -d 21 -p ACK -e 5 -c 2 -a 0 -i 0 -k MAC 
- -t 0.099317086 -s 24 -d 21 -p ACK -e 5 -c 2 -a 0 -i 0 -k MAC
h -t 0.099317086 -s 24 -d 21 -p ACK -e 5 -c 2 -a 0 -i 0 -k MAC
r -t 0.099669115 -s 21 -d 21 -p ACK -e 5 -c 2 -a 0 -i 0 -k MAC
r -t 0.100309086 -s 24 -d 24 -p tcp -e 40 -c 2 -a 34 -i 0 -k MAC
+ -t 0.101639086 -s 24 -d 6 -p tcp -e 47 -c 2 -a 34 -i 0 -k MAC 
- -t 0.101639086 -s 24 -d 6 -p tcp -e 47 -c 2 -a 34 -i 0 -k MAC
h -t 0.101639086 -s 24 -d 6 -p tcp -e 47 -c 2 -a 34 -i 0 -k MAC
+ -t 0.103527116 -s 6 -d 24 -p ACK -e 5 -c 2 -a 0 -i 0 -k MAC 
- -t 0.103527116 -s 6 -d 24 -p ACK -e 5 -c 2 -a 0 -i 0 -k MAC
h -t 0.103527116 -s 6 -d 24 -p ACK -e 5 -c 2 -a 0 -i 0 -k MAC
r -t 0.103879146 -s 24 -d 24 -p ACK -e 5 -c 2 -a 0 -i 0 -k MAC
r -t 0.104519116 -s 6 -d 6 -p tcp -e 40 -c 2 -a 34 -i 0 -k MAC
+ -t 0.106169116 -s 6 -d 24 -p ack -e 47 -c 2 -a 35 -i 1 -k MAC 
- -t 0.106169116 -s 6 -d 24 -p ack -e 47 -c 2 -a 35 -i 1 -k MAC
h -t 0.106169116 -s 6 -d 24 -p ack -e 47 -c 2 -a 35 -i 1 -k MAC
+ -t 0.108057146 -s 24 -d 6 -p ACK -e 5 -c 2 -a 0 -i 1 -k MAC 
- -t 0.108057146 -s 24 -d 6 -p ACK -e 5 -c 2 -a 0 -i 1 -k MAC
h -t 0.108057146 -s 24 -d 6 -p ACK -e 5 -c 2 -a 0 -i 1 -k MAC
r -t 0.108409176 -s 6 -d 6 -p ACK -e 5 -c 2 -a 0 -i 1 -k MAC
r -t 0.109049146 -s 24 -d 24 -p ack -e 40 -c 2 -a 35 -i 1 -k MAC
+ -t 0.110699146 -s 24 -d 21 -p ack -e 47 -c 2 -a 35 -i 1 -k MAC 
- -t 0.110699146 -s 24 -d 21 -p ack -e 47 -c 2 -a 35 -i 1 -k MAC
h -t 0.110699146 -s 24 -d 21 -p ack -e 47 -c 2 -a 35 -i 1 -k MAC
+ -t 0.112587175 -s 21 -d 24 -p ACK -e 5 -c 2 -a 0 -i 1 -k MAC 
- -t 0.112587175 -s 21 -d 24 -p ACK -e 5 -c 2 -a 0 -i 1 -k MAC
h -t 0.112587175 -s 21 -d 24 -p ACK -e 5 -c 2 -a 0 -i 1 -k MAC
r -t 0.112939203 -s 24 -d 24 -p ACK -e 5 -c 2 -a 0 -i 1 -k MAC
r -t 0.113579175 -s 21 -d 21 -p ack -e 40 -c 2 -a 35 -i 1 -k MAC
+ -t 0.116189175 -s 21 -d 20 -p ack -e 47 -c 2 -a 35 -i 1 -k MAC 
- -t 0.116189175 -s 21 -d 20 -p ack -e 47 -c 2 -a 35 -i 1 -k MAC
h -t 0.116189175 -s 21 -d 20 -p ack -e 47 -c 2 -a 35 -i 1 -k MAC
+ -t 0.118077222 -s 20 -d 21 -p ACK -e 5 -c 2 -a 0 -i 1 -k MAC 
- -t 0.118077222 -s 20 -d 21 -p ACK -e 5 -c 2 -a 0 -i 1 -k MAC
h -t 0.118077222 -s 20 -d 21 -p ACK -e 5 -c 2 -a 0 -i 1 -k MAC
r -t 0.118429268 -s 21 -d 21 -p ACK -e 5 -c 2 -a 0 -i 1 -k MAC
r -t 0.119069222 -s 20 -d 20 -p ack -e 40 -c 2 -a 35 -i 1 -k MAC
+ -t 0.120399222 -s 20 -d 19 -p ack -e 47 -c 2 -a 35 -i 1 -k MAC 
- -t 0.120399222 -s 20 -d 19 -p ack -e 47 -c 2 -a 35 -i 1 -k MAC
h -t 0.120399222 -s 20 -d 19 -p ack -e 47 -c 2 -a 35 -i 1 -k MAC
+ -t 0.122287271 -s 19 -d 20 -p ACK -e 5 -c 2 -a 0 -i 1 -k MAC 
- -t 0.122287271 -s 19 -d 20 -p ACK -e 5 -c 2 -a 0 -i 1 -k MAC
h -t 0.122287271 -s 19 -d 20 -p ACK -e 5 -c 2 -a 0 -i 1 -k MAC
r -t 0.122639320 -s 20 -d 20 -p ACK -e 5 -c 2 -a 0 -i 1 -k MAC
r -t 0.123279271 -s 19 -d 19 -p ack -e 40 -c 2 -a 35 -i 1 -k MAC
+ -t 0.123649271 -s 19 -d 20 -p tcp -e 107 -c 2 -a 34 -i 2 -k MAC 
- -t 0.123649271 -s 19 -d 20 -p tcp -e 107 -c 2 -a 34 -i 2 -k MAC
h -t 0.123649271 -s 19 -d 20 -p tcp -e 107 -c 2 -a 34 -i 2 -k MAC
+ -t 0.127457320 -s 20 -d 19 -p ACK -e 5 -c 2 -a 0 -i 2 -k MAC 
- -t 0.127457320 -s 20 -d 19 -p ACK -e 5 -c 2 -a 0 -i 2 -k MAC
h -t 0.127457320 -s 20 -d 19 -p ACK -e 5 -c 2 -a 0 -i 2 -k MAC
r -t 0.127809369 -s 19 -d 19 -p ACK -e 5 -c 2 -a 0 -i 2 -k MAC
+ -t 0.128129369 -s 19 -d 20 -p tcp -e 107 -c 2 -a 34 -i 3 -k MAC 
- -t 0.128129369 -s 19 -d 20 -p tcp -e 107 -c 2 -a 34 -i 3 -k MAC
h -t 0.128129369 -s 19 -d 20 -p tcp -e 107 -c 2 -a 34 -i 3 -k MAC
r -t 0.128449320 -s 20 -d 20 -p tcp -e 100 -c 2 -a 34 -i 2 -k MAC
+ -t 0.131937418 -s 20 -d 19 -p ACK -e 5 -c 2 -a 0 -i 3 -k MAC 
- -t 0.131937418 -s 20 -d 19 -p ACK -e 5 -c 2 -a 0 -i 3 -k MAC
h -t 0.131937418 -s 20 -d 19 -p ACK -e 5 -c 2 -a 0 -i 3 -k MAC
r -t 0.132289467 -s 19 -d 19 -p ACK -e 5 -c 2 -a 0 -i 3 -k MAC
r -t 0.132929418 -s 20 -d 20 -p tcp -e 100 -c 2 -a 34 -i 3 -k MAC
+ -t 0.134849418 -s 20 -d 21 -p tcp -e 107 -c 2 -a 34 -i 2 -k MAC 
- -t 0.134849418 -s 20 -d 21 -p tcp -e 107 -c 2 -a 34 -i 2 -k MAC
h -t 0.134849418 -s 20 -d 21 -p tcp -e 107 -c 2 -a 34 -i 2 -k MAC
+ -t 0.138657464 -s 21 -d 20 -p ACK -e 5 -c 2 -a 0 -i 2 -k MAC 
- -t 0.138657464 -s 21 -d 20 -p ACK -e 5 -c 2 -a 0 -i 2 -k MAC
h -t 0.138657464 -s 21 -d 20 -p ACK -e 5 -c 2 -a 0 -i 2 -k MAC
r -t 0.139009511 -s 20 -d 20 -p ACK -e 5 -c 2 -a 0 -i 2 -k MAC
r -t 0.139649464 -s 21 -d 21 -p tcp -e 100 -c 2 -a 34 -i 2 -k MAC
+ -t 0.140659464 -s 21 -d 24 -p tcp -e 107 -c 2 -a 34 -i 2 -k MAC 
- -t 0.140659464 -s 21 -d 24 -p tcp -e 107 -c 2 -a 34 -i 2 -k MAC
h -t 0.140659464 -s 21 -d 24 -p tcp -e 107 -c 2 -a 34 -i 2 -k MAC
+ -t 0.144467493 -s 24 -d 21 -p ACK -e 5 -c 2 -a 0 -i 2 -k MAC 
- -t 0.144467493 -s 24 -d 21 -p ACK -e 5 -c 2 -a 0 -i 2 -k MAC
h -t 0.144467493 -s 24 -d 21 -p ACK -e 5 -c 2 -a 0 -i 2 -k MAC
r -t 0.144819521 -s 21 -d 21 -p ACK -e 5 -c 2 -a 0 -i 2 -k MAC
r -t 0.145459493 -s 24 -d 24 -p tcp -e 100 -c 2 -a 34 -i 2 -k MAC
+ -t 0.145665511 -s 20 -d 21 -p tcp -e 107 -c 2 -a 34 -i 3 -k MAC 
- -t 0.145665511 -s 20 -d 21 -p tcp -e 107 -c 2 -a 34 -i 3 -k MAC
h -t 0.145665511 -s 20 -d 21 -p tcp -e 107 -c 2 -a 34 -i 3 -k MAC
+ -t 0.147429493 -s 24 -d 6 -p tcp -e 107 -c 2 -a 34 -i 2 -k MAC 
- -t 0.147429493 -s 24 -d 6 -p tcp -e 107 -c 2 -a 34 -i 2 -k MAC
h -t 0.147429493 -s 24 -d 6 -p tcp -e 107 -c 2 -a 34 -i 2 -k MAC
d -t 0.149281558 -s 21 -d 21 -p tcp -e 107 -c 2 -a 34 -i 3 -k MAC
n -t 0.149281559 -s 21 -S COLOR -c gold -o black
+ -t 0.150465511 -s 20 -d 21 -p tcp -e 107 -c 2 -a 34 -i 3 -k MAC 
- -t 0.150465511 -s 20 -d 21 -p tcp -e 107 -c 2 -a 34 -i 3 -k MAC
h -t 0.150465511 -s 20 -d 21 -p tcp -e 107 -c 2 -a 34 -i 3 -k MAC
+ -t 0.151237523 -s 6 -d 24 -p ACK -e 5 -c 2 -a 0 -i 2 -k MAC 
- -t 0.151237523 -s 6 -d 24 -p ACK -e 5 -c 2 -a 0 -i 2 -k MAC
h -t 0.151237523 -s 6 -d 24 -p ACK -e 5 -c 2 -a 0 -i 2 -k MAC
r -t 0.151589553 -s 24 -d 24 -p ACK -e 5 -c 2 -a 0 -i 2 -k MAC
r -t 0.152229523 -s 6 -d 6 -p tcp -e 100 -c 2 -a 34 -i 2 -k MAC
+ -t 0.153559523 -s 6 -d 24 -p ack -e 47 -c 2 -a 35 -i 4 -k MAC 
- -t 0.153559523 -s 6 -d 24 -p ack -e 47 -c 2 -a 35 -i 4 -k MAC
h -t 0.153559523 -s 6 -d 24 -p ack -e 47 -c 2 -a 35 -i 4 -k MAC
d -t 0.154081558 -s 21 -d 21 -p tcp -e 107 -c 2 -a 34 -i 3 -k MAC
n -t 0.154081559 -s 21 -S COLOR -c gold -o black
+ -t 0.155447553 -s 24 -d 6 -p ACK -e 5 -c 2 -a 0 -i 4 -k MAC 
- -t 0.155447553 -s 24 -d 6 -p ACK -e 5 -c 2 -a 0 -i 4 -k MAC
h -t 0.155447553 -s 24 -d 6 -p ACK -e 5 -c 2 -a 0 -i 4 -k MAC
r -t 0.155799583 -s 6 -d 6 -p ACK -e 5 -c 2 -a 0 -i 4 -k MAC
+ -t 0.155905511 -s 20 -d 21 -p tcp -e 107 -c 2 -a 34 -i 3 -k MAC 
- -t 0.155905511 -s 20 -d 21 -p tcp -e 107 -c 2 -a 34 -i 3 -k MAC
h -t 0.155905511 -s 20 -d 21 -p tcp -e 107 -c 2 -a 34 -i 3 -k MAC
r -t 0.156439553 -s 24 -d 24 -p ack -e 40 -c 2 -a 35 -i 4 -k MAC
+ -t 0.157449553 -s 24 -d 21 -p ack -e 47 -c 2 -a 35 -i 4 -k MAC 
- -t 0.157449553 -s 24 -d 21 -p ack -e 47 -c 2 -a 35 -i 4 -k MAC
h -t 0.157449553 -s 24 -d 21 -p ack -e 47 -c 2 -a 35 -i 4 -k MAC
n -t 0.157449582 -s 21 -S COLOR -c gold -o black
d -t 0.159145581 -s 21 -d 21 -p ack -e 47 -c 2 -a 35 -i 4 -k MAC
n -t 0.159281559 -s 21 -S COLOR -c grey -o gold
+ -t 0.160969553 -s 24 -d 21 -p ack -e 47 -c 2 -a 35 -i 4 -k MAC 
- -t 0.160969553 -s 24 -d 21 -p ack -e 47 -c 2 -a 35 -i 4 -k MAC
h -t 0.160969553 -s 24 -d 21 -p ack -e 47 -c 2 -a 35 -i 4 -k MAC
+ -t 0.162305511 -s 20 -d 21 -p tcp -e 107 -c 2 -a 34 -i 3 -k MAC 
- -t 0.162305511 -s 20 -d 21 -p tcp -e 107 -c 2 -a 34 -i 3 -k MAC
h -t 0.162305511 -s 20 -d 21 -p tcp -e 107 -c 2 -a 34 -i 3 -k MAC
n -t 0.162305559 -s 21 -S COLOR -c gold -o black
d -t 0.162665581 -s 21 -d 21 -p ack -e 47 -c 2 -a 35 -i 4 -k MAC
n -t 0.164081559 -s 21 -S COLOR -c grey -o gold
+ -t 0.164489553 -s 24 -d 21 -p ack -e 47 -c 2 -a 35 -i 4 -k MAC 
- -t 0.164489553 -s 24 -d 21 -p ack -e 47 -c 2 -a 35 -i 4 -k MAC
h -t 0.164489553 -s 24 -d 21 -p ack -e 47 -c 2 -a 35 -i 4 -k MAC
d -t 0.166185581 -s 21 -d 21 -p ack -e 47 -c 2 -a 35 -i 4 -k MAC
n -t 0.166185582 -s 21 -S COLOR -c gold -o black
d -t 0.166785511 -s 20 -d 21 -p tcp -e 100 -c 2 -a 34 -i 3 -k RTR
n -t 0.166785512 -s 20 -S DLABEL -l " ~ 21" -L ""
n -t 0.167449582 -s 21 -S COLOR -c grey -o gold
n -t 0.169281559 -s 21 -S COLOR -c black -o grey
+ -t 0.169370511 -s 20 -d 0 -p AODV -e 39 -c 2 -a 32 -i 0 -k MAC 
- -t 0.169370511 -s 20 -d 0 -p AODV -e 39 -c 2 -a 32 -i 0 -k MAC
h -t 0.169370511 -s 20 -d 0 -p AODV -e 39 -c 2 -a 32 -i 0 -k MAC
+ -t 0.169609553 -s 24 -d 21 -p ack -e 47 -c 2 -a 35 -i 4 -k MAC 
- -t 0.169609553 -s 24 -d 21 -p ack -e 47 -c 2 -a 35 -i 4 -k MAC
h -t 0.169609553 -s 24 -d 21 -p ack -e 47 -c 2 -a 35 -i 4 -k MAC
n -t 0.169609582 -s 21 -S COLOR -c gold -o black
d -t 0.171305581 -s 21 -d 21 -p ack -e 47 -c 2 -a 35 -i 4 -k MAC
r -t 0.171450542 -s 4 -d 0 -p AODV -e 32 -c 2 -a 32 -i 0 -k MAC
r -t 0.171450559 -s 15 -d 0 -p AODV -e 32 -c 2 -a 32 -i 0 -k MAC
r -t 0.171450560 -s 19 -d 0 -p AODV -e 32 -c 2 -a 32 -i 0 -k MAC
d -t 0.172169553 -s 24 -d 21 -p ack -e 40 -c 2 -a 35 -i 4 -k RTR
n -t 0.172169554 -s 24 -S DLABEL -l " ~ 21" -L ""
n -t 0.172305559 -s 21 -S COLOR -c grey -o gold
+ -t 0.172834553 -s 24 -d 0 -p AODV -e 39 -c 2 -a 32 -i 0 -k MAC 